# vtk DataFile Version 3.0
vtk output
ASCII
DATASET POLYDATA
POINTS 32744 float
-0.150303 -10.0667 36.0378 -0.150303 -10.0667 35.5752 -0.146277 -10.0662 34.1895 
-0.146277 -10.0662 34.6521 -0.169507 -10.0702 32.1095 -0.169507 -10.0702 32.5721 
-0.163551 -10.0694 31.1799 -0.163551 -10.0694 30.7173 -0.167664 -10.0702 29.3295 
-0.167664 -10.0703 29.7921 -0.161892 -10.0694 28.4109 -0.161892 -10.0694 27.9483 
-0.145701 -10.067 26.5646 -0.145701 -10.067 27.0271 -0.236455 -5.38932 -9.4739e-015 
-0.236456 -6.01907 0 -0.149624 -10.0678 24.4819 -0.149624 -10.0679 24.9445 
-0.169895 -10.0716 22.8521 -0.169895 -10.0716 22.3895 -0.173867 -10.0726 21.0033 
-0.173867 -10.0726 21.4659 -0.167615 -10.0716 19.62 -0.167615 -10.0716 20.0825 
-0.163604 -10.071 18.226 -0.163604 -10.071 18.6886 -0.169928 -10.0724 16.838 
-0.169928 -10.0724 17.3006 -0.156117 -10.0717 2.97187 -0.156117 -10.0717 3.43446 
-0.166762 -10.0736 4.35192 -0.166762 -10.0736 4.81451 -0.169498 -10.0725 15.4533 
-0.169498 -10.0725 15.9159 -0.166234 -10.0733 5.73877 -0.166234 -10.0733 6.20136 
-0.16969 -10.0728 14.525 -0.16969 -10.0728 14.0624 -0.174114 -10.0739 13.1399 
-0.174114 -10.0738 12.6773 -0.165705 -10.0724 11.2967 -0.165705 -10.0724 11.7593 
-0.150266 -10.07 7.82995 -0.150266 -10.07 8.29254 -0.147182 -10.0692 10.3752 
-0.147182 -10.0692 9.91265 -0.452985 -78.4419 -68.9835 -0.452985 -77.7659 -70.1544 
-1.47004e-013 -75 -74.9519 -0.665513 -75.3391 -74.3492 -0.99827 -74.9867 -74.9519 
-0.375593 -80.7622 -64.967 -0.375593 -81.4142 -63.8377 -1.1354 -74.9867 -75.4606 
-0.802657 -74.9911 -75.7087 -8.24692e-006 -74.9956 -75.9568 -0.469912 -74.9956 -75.9568 
-0.430474 -74.9963 -80.4219 -0.430474 -74.9963 -81.4142 -0.461259 -74.9958 -83.3941 
-0.461259 -74.9958 -84.3864 -107.962 -15.008 42 -108.257 -14.8909 41.9034 
-108.323 -15.0831 41.8712 -108.208 -15.2378 41.9034 -108.056 -14.3141 42 
-108.35 -14.1965 41.9034 -108.417 -14.3888 41.8713 -108.304 -14.5437 41.9034 
-108.19 -14.6986 41.9356 -108.009 -14.6611 42 -108.094 -15.3924 41.9356 
-107.913 -15.3547 42 -108.282 -14.0042 41.9356 -108.101 -13.9669 42 
-108.146 -13.6196 42 -108.395 -13.849 41.9034 -108.439 -13.5015 41.9034 
-108.507 -13.6938 41.8712 -108.231 -12.9246 42 -108.523 -12.8056 41.9033 
-108.593 -12.998 41.8712 -108.481 -13.1535 41.9034 -107.981 -14.862 42.3469 
-108.007 -14.6793 42.2312 -108.029 -14.5147 42.3468 -108.37 -13.3091 41.9356 
-108.188 -13.2721 42 -108.075 -14.1674 42.3469 -108.099 -13.9847 42.2313 
-108.12 -13.8199 42.347 -107.91 -15.3734 42.2314 -107.933 -15.2091 42.347 
-108.051 -14.3501 42.4624 -108.312 -12.229 42 -108.603 -12.1082 41.9032 
-108.675 -12.3005 41.871 -108.564 -12.4569 41.9033 -108.141 -13.655 42.4627 
-108.164 -13.4723 42.347 -108.453 -12.6133 41.9355 -108.271 -12.5768 42 
-107.956 -15.0448 42.4626 -108.35 -11.8809 42 -108.532 -11.916 41.9355 
-108.388 -11.5329 42 -108.643 -11.7581 41.903 -108.186 -13.2897 42.2314 
-108.206 -13.1246 42.3472 -108.68 -11.4084 41.9029 -108.753 -11.6001 41.8706 
-108.226 -12.9595 42.463 -108.248 -12.7768 42.3473 -108.27 -12.5942 42.2316 
-108.289 -12.4289 42.3474 -108.607 -11.2168 41.9352 -108.424 -11.1846 42 
-108.46 -10.8363 42 -108.719 -11.0563 41.9021 -108.755 -10.7054 41.9016 
-108.83 -10.8957 41.8691 -108.328 -12.0809 42.3475 -108.348 -11.8982 42.2318 
-108.366 -11.7329 42.3477 -108.681 -10.5151 41.934 -108.494 -10.4878 42 
-108.527 -10.1393 42 -108.792 -10.3526 41.9006 -108.308 -12.2636 42.4633 
-108.384 -11.5675 42.4637 -108.403 -11.3847 42.3478 -108.422 -11.2019 42.2319 
-108.439 -11.0365 42.348 -108.826 -10.0022 41.9003 -108.903 -10.1901 41.8673 
-108.456 -10.8711 42.4641 -108.474 -10.6882 42.3481 -108.559 -9.79057 42 
-108.748 -9.8142 41.9333 -108.59 -9.44185 42 -108.858 -9.6491 41.9002 
-108.492 -10.5053 42.2321 -108.508 -10.34 42.3483 -108.888 -9.29776 41.9004 
-108.967 -9.484 41.867 -108.524 -10.1746 42.4644 -108.541 -9.99153 42.3483 
-108.808 -9.11152 41.9337 -108.62 -9.09293 42 -108.649 -8.74402 42 
-108.916 -8.94287 41.9011 -108.942 -8.5904 41.9017 -109.023 -8.77421 41.8685 
-108.557 -9.80844 42.2323 -108.572 -9.64328 42.3484 -108.602 -9.29474 42.3485 
-108.618 -9.11138 42.2324 -108.632 -8.9464 42.3486 -108.676 -8.39492 42 
-108.862 -8.40659 41.9348 -108.703 -8.04583 42 -108.968 -8.23533 41.9024 
-108.587 -9.47811 42.4646 -108.645 -8.78142 42.4648 -108.66 -8.59768 42.3486 
-108.993 -7.88364 41.9026 -109.074 -8.06408 41.87 -108.674 -8.41394 42.2324 
-108.687 -8.24915 42.3486 -108.913 -7.70321 41.9352 -108.727 -7.69656 42 
-108.752 -7.3473 42 -109.018 -7.53045 41.9028 -109.041 -7.17969 41.9029 
-109.122 -7.35769 41.8705 -108.713 -7.90025 42.3486 -108.726 -7.71614 42.2323 
-108.738 -7.55148 42.3485 -108.699 -8.08437 42.4648 -108.761 -7.20234 42.3484 
-108.773 -7.01787 42.2323 -108.775 -6.99789 42 -108.784 -6.85329 42.3483 
-108.797 -6.64847 42 -108.749 -7.38682 42.4646 -109.063 -6.82813 41.9031 
-108.96 -7.00169 41.9353 -108.794 -6.68871 42.4644 -108.805 -6.50397 42.3482 
-109.084 -6.47792 41.9032 -109.166 -6.65457 41.8709 -109.002 -6.30126 41.9356 
-108.817 -6.29892 42 -108.838 -5.94937 42 -109.103 -6.12721 41.9042 
-108.816 -6.31922 42.2321 -108.826 -6.15465 42.3481 -108.835 -5.99008 42.4641 
-108.845 -5.80511 42.348 -109.122 -5.77717 41.9049 -109.205 -5.95316 41.8727 
-108.855 -5.62015 42.2319 -108.855 -5.5997 42 -108.863 -5.45553 42.3478 
-108.873 -5.25002 42 -109.14 -5.42695 41.9054 -109.039 -5.60118 41.9371 
-108.88 -5.1058 42.3477 -108.888 -4.92071 42.2318 -108.889 -4.90024 42 
-108.896 -4.75598 42.3475 -108.905 -4.55046 42 -109.175 -4.72713 41.9046 
-109.074 -4.90149 41.9366 -109.157 -5.0771 41.9051 -108.871 -5.2909 42.4637 
-108.903 -4.59125 42.4633 -108.91 -4.4061 42.3474 -109.241 -5.25272 41.8737 
-109.105 -4.20167 41.936 -108.918 -4.20058 42 -108.932 -3.85071 42 
-109.203 -4.02714 41.9043 -109.19 -4.37722 41.9043 -109.275 -4.55276 41.8726 
-108.918 -4.22094 42.2316 -108.924 -4.05606 42.3473 -109.128 -3.50158 41.9365 
-108.943 -3.50075 42 -108.954 -3.1508 42 -109.226 -3.32693 41.9047 
-109.215 -3.67709 41.9045 -109.302 -3.8526 41.8725 -108.943 -3.5209 42.2314 
-108.948 -3.35584 42.347 -108.936 -3.70604 42.3472 -108.93 -3.89118 42.463 
-108.967 -2.65537 42.3469 -108.972 -2.45076 42 -108.963 -2.80078 42 
-108.963 -2.82063 42.2313 -108.958 -3.00571 42.347 -108.953 -3.19078 42.4627 
-109.245 -2.62668 41.9047 -109.148 -2.80144 41.9365 -109.236 -2.97685 41.9047 
-109.323 -3.15227 41.873 -108.971 -2.49011 42.4624 -108.975 -2.30515 42.3468 
-109.253 -2.27656 41.9047 -109.341 -2.45192 41.8729 -108.979 -2.1202 42.2312 
-108.979 -2.10069 42 -108.982 -1.95466 42.3469 -108.986 -1.75062 42 
-109.259 -1.92636 41.9047 -109.164 -2.10121 41.9365 -108.985 -1.78912 42.4626 
-108.988 -1.60431 42.347 -109.265 -1.57621 41.9047 -109.355 -1.75152 41.8729 
-108.995 -1.0504 42 -108.992 -1.25391 42.3471 -108.994 -1.08832 42.4628 
-108.996 -0.903753 42.3471 -108.997 -0.719191 42.2314 -108.997 -0.700269 42 
-108.998 -0.553307 42.347 -108.999 -0.350142 42 -108.99 -1.41951 42.2314 
-108.99 -1.40051 42 -109.27 -1.22599 41.9047 -109.175 -1.4009 41.9364 
-108.999 -0.387424 42.4626 -108.999 -0.202896 42.3469 -109.273 -0.875822 41.9047 
-109.364 -1.05108 41.8729 -109.275 -0.52559 41.9047 -109.182 -0.700564 41.9364 
-109 -0.0183685 42.2312 -108.999 -5.75214e-006 42 -108.999 0.14769 42.3468 
-108.999 0.35013 42 -109.276 0.174842 41.9047 -109.184 -0.000186611 41.9364 
-109.276 -0.175401 41.9047 -109.368 -0.350615 41.8729 -108.999 0.313748 42.4624 
-108.998 0.497996 42.3468 -108.997 0.682243 42.2313 -108.997 0.70026 42 
-108.996 0.848441 42.3469 -108.995 1.05039 42 -109.273 0.875297 41.9046 
-109.182 0.700184 41.9364 -109.275 0.525028 41.9047 -109.368 0.349871 41.8729 
-108.995 1.01464 42.4626 -108.993 1.1987 42.347 -109.27 1.22551 41.9046 
-109.364 1.05041 41.8728 -109.175 1.4006 41.9364 -108.99 1.4005 42 
-108.986 1.7506 42 -109.265 1.57578 41.9046 -108.991 1.38277 42.2314 
-108.988 1.54906 42.3472 -108.986 1.71535 42.4629 -108.983 1.89926 42.3472 
-108.98 2.08316 42.2315 -108.979 2.10067 42 -108.976 2.24949 42.3474 
-108.972 2.45074 42 -109.26 1.92596 41.9046 -109.355 1.75097 41.8728 
-109.253 2.27625 41.9045 -109.164 2.10094 41.9364 -108.973 2.41582 42.4633 
-108.968 2.5996 42.3475 -109.246 2.62643 41.9043 -109.343 2.45155 41.8725 
-108.96 2.94968 42.3477 -108.954 3.15079 42 -108.963 2.80077 42 
-108.964 2.78337 42.2317 -108.932 3.8507 42 -108.938 3.64955 42.348 
-108.933 3.81575 42.464 -108.926 3.99939 42.3481 -108.913 4.34904 42.3482 
-108.905 4.55045 42 -108.918 4.20057 42 -108.919 4.18304 42.2321 
-108.95 3.29966 42.3478 -108.944 3.48335 42.2319 -108.943 3.50074 42 
-109.189 4.37705 41.9042 -109.104 4.20155 41.9364 -109.203 4.02698 41.9045 
-109.149 2.80131 41.9361 -109.237 2.9767 41.9042 -108.955 3.11598 42.4637 
-108.857 5.58133 42.2324 -108.856 5.59969 42 -108.873 5.25001 42 
-108.866 5.39756 42.3485 -108.848 5.74671 42.3486 -108.838 5.94936 42 
-108.883 5.04808 42.3484 -108.875 5.21378 42.4646 -108.898 4.69871 42.3483 
-108.89 4.88239 42.2323 -108.889 4.90023 42 -108.906 4.51504 42.4644 
-109.215 3.67696 41.9044 -109.129 3.50151 41.9362 -109.227 3.3268 41.9043 
-109.158 5.07695 41.9034 -109.074 4.90139 41.9356 -109.174 4.72698 41.9038 
-109.274 4.55256 41.872 -109.302 3.85242 41.8727 -109.325 3.15208 41.8723 
-109.123 5.77678 41.9033 -109.04 5.60106 41.9356 -109.141 5.42679 41.9034 
-108.839 5.9121 42.4648 -108.829 6.09607 42.3486 -109.242 5.25251 41.8712 
-108.797 6.64846 42 -108.809 6.44508 42.3486 -108.799 6.61012 42.4648 
-108.788 6.79428 42.3486 -108.776 6.97845 42.2323 -108.775 6.99787 42 
-108.765 7.1432 42.3485 -108.752 7.34729 42 -109.04 7.17501 41.9033 
-108.96 6.99946 41.9355 -109.063 6.82563 41.9032 -108.754 7.30796 42.4646 
-108.742 7.49233 42.3484 -108.717 7.8412 42.3483 -108.703 8.04581 42 
-108.727 7.69655 42 -108.729 7.67669 42.2323 -108.992 7.87402 41.9034 
[...]
POINT_DATA 32744
COLOR_SCALARS scalars 3
0.231373 1 0 0.137255 1 0 0.117647 1 0 
0.101961 1 0 0.00392157 1 0 
0.00392157 1 0 0.00392157 1 0 
0 1 0 0 1 0 
0 1 0.00392157 0 1 0 
0 1 0 0 1 0.0627451 
0 1 0.0235294 1 0.54902 0 
1 0.54902 0 0 1 0.0784314 
0 1 0.0901961 0 1 0.0784314 
0 1 0.0901961 0 1 0.0901961 
0 1 0.0784314 0 1 0.0627451 
0 1 0.0784314 0 1 0.0784314 
0 1 0.0784314 0 1 0.0784314 
0 1 0.0627451 0 1 0.321569 
0 1 0.211765 0 1 0.0784314 
0 1 0.156863 0 1 0.0901961 
0 1 0.137255 0 1 0.105882 
0 1 0.0313725 0 1 0.121569 
0 1 0.156863 0 1 0.235294 
0 1 0.211765 0 1 0.254902 
0 1 0.211765 0 1 0.156863 
0 1 0.137255 0 1 0.172549 
0 1 0.211765 0.364706 1 0 
0.341176 1 0 0.894118 1 0 
0.364706 1 0 0.862745 1 0 
0.462745 1 0 0.486275 1 0 
1 0.972549 0 1 0.976471 0 
1 0.992157 0 1 0.976471 0 
1 0.976471 0 1 0.976471 0 
1 0.972549 0 1 0.952941 0 
0.0509804 1 0 0.172549 1 0 
0.211765 1 0 0.172549 1 0 
0.0509804 1 0 0.172549 1 0 
0.211765 1 0 0.172549 1 0 
0.152941 1 0 0.0509804 1 0 
0.152941 1 0 0.0627451 1 0 
0.172549 1 0 0.0627451 1 0 
0.0745098 1 0 0.192157 1 0 
0.231373 1 0 0.231373 1 0 
0.0745098 1 0 0.25098 1 0 
0.27451 1 0 0.231373 1 0 
0.0117647 1 0 0.0117647 1 0 
0.0117647 1 0 0.231373 1 0 
0.0745098 1 0 0.00392157 1 0 
0.0117647 1 0 0.00392157 1 0 
0.0156863 1 0 0.0117647 1 0 
0.00392157 1 0 0.0901961 1 0 
0.27451 1 0 0.27451 1 0 
0.25098 1 0 0 1 0 
0 1 0 0.25098 1 0 
0.0901961 1 0 0.0156863 1 0 
0.0901961 1 0 0.27451 1 0 
0.101961 1 0 0.27451 1 0 
0.00392157 1 0 0 1 0 
0.27451 1 0 0.27451 1 0 
0 1 0 0 1 0 
0.00392157 1 0 0 1 0 
0.27451 1 0 0.117647 1 0 
0.0901961 1 0 0.27451 1 0 
0.231373 1 0 0.25098 1 0 
0 1 0 0 1 0 
0 1 0 0.211765 1 0 
0.0901961 1 0 0.0745098 1 0 
0.192157 1 0 0 1 0 
0 1 0 0.00392157 1 0 
0.0156863 1 0 0 1 0 
0.172549 1 0 0.192157 1 0 
0 1 0 0.00392157 1 0 
0.0627451 1 0 0.172549 1 0 
0.0745098 1 0 0.152941 1 0 
0.0156863 1 0 0.00392157 1 0 
0.152941 1 0 0.152941 1 0 
0.00392157 1 0 0.00392157 1 0 
0.152941 1 0 0.0901961 1 0 
0.0745098 1 0 0.137255 1 0 
0.137255 1 0 0.137255 1 0 
0.0117647 1 0 0.0117647 1 0 
0.0235294 1 0 0.0313725 1 0 
0.0235294 1 0 0.0745098 1 0 
0.137255 1 0 0.0745098 1 0 
0.137255 1 0 0.0156863 1 0 
0.0235294 1 0 0.0313725 1 0 
0.137255 1 0 0.137255 1 0 
0.0313725 1 0 0.0313725 1 0 
0.137255 1 0 0.0745098 1 0 
0.0745098 1 0 0.137255 1 0 
0.137255 1 0 0.137255 1 0 
0.0313725 1 0 0.0313725 1 0 
0.0313725 1 0 0.0313725 1 0 
0.0313725 1 0 0.0392157 1 0 
0.0745098 1 0 0.0392157 1 0 
0.0745098 1 0 0.0313725 1 0 
0.117647 1 0 0.117647 1 0 
0.0392157 1 0 0.0392157 1 0 
0.117647 1 0 0.117647 1 0 
0.117647 1 0 0.0901961 1 0 
0.0901961 1 0 0.117647 1 0 
0.0509804 1 0 0.0392157 1 0 
0.0392157 1 0 0.0509804 1 0 
0.117647 1 0 0.117647 1 0 
0.0509804 1 0 0.0901961 1 0 
0.0509804 1 0 0.0901961 1 0 
0.117647 1 0 0.117647 1 0 
0.0627451 1 0 0.0627451 1 0 
0.0901961 1 0 0.0627451 1 0 
0.0901961 1 0 0.101961 1 0 
0.117647 1 0 0.117647 1 0 
0.0509804 1 0 0.0627451 1 0 
0.0627451 1 0 0.117647 1 0 
0.101961 1 0 0.0745098 1 0 
0.0745098 1 0 0.101961 1 0 
0.101961 1 0 0.101961 1 0 
0.0627451 1 0 0.0627451 1 0 
0.101961 1 0 0.0901961 1 0 
0.0901961 1 0 0.101961 1 0 
0.101961 1 0 0.101961 1 0 
0.0627451 1 0 0.0627451 1 0 
0.0627451 1 0 0.0627451 1 0 
0.0745098 1 0 0.0901961 1 0 
0.0901961 1 0 0.0745098 1 0 
0.0745098 1 0 0.0745098 1 0 
0.101961 1 0 0.101961 1 0 
0.101961 1 0 0.101961 1 0 
0.0745098 1 0 0.0745098 1 0 
0.101961 1 0 0.101961 1 0 
0.0745098 1 0 0.0901961 1 0 
0.0745098 1 0 0.0901961 1 0 
0.101961 1 0 0.101961 1 0 
0.0745098 1 0 0.0745098 1 0 
0.101961 1 0 0.101961 1 0 
0.0901961 1 0 0.0745098 1 0 
0.0745098 1 0 0.0901961 1 0 
0.0901961 1 0 0.0901961 1 0 
0.0901961 1 0 0.0901961 1 0 
0.0745098 1 0 0.0901961 1 0 
0.101961 1 0 0.101961 1 0 
0.0745098 1 0 0.0745098 1 0 
0.101961 1 0 0.101961 1 0 
0.101961 1 0 0.101961 1 0 
0.0745098 1 0 0.0901961 1 0 
0.0745098 1 0 0.0901961 1 0 
0.101961 1 0 0.101961 1 0 
0.101961 1 0 0.101961 1 0 
0.0745098 1 0 0.0901961 1 0 
0.0901961 1 0 0.0901961 1 0 
0.0901961 1 0 0.0901961 1 0 
0.101961 1 0 0.101961 1 0 
0.101961 1 0 0.101961 1 0 
0.0901961 1 0 0.0901961 1 0 
0.101961 1 0 0.101961 1 0 
0.101961 1 0 0.0901961 1 0 
0.0901961 1 0 0.101961 1 0 
0.0901961 1 0 0.0901961 1 0 
0.0745098 1 0 0.0901961 1 0 
0.0745098 1 0 0.0901961 1 0 
0.0745098 1 0 0.0901961 1 0 
0.101961 1 0 0.101961 1 0 
0.101961 1 0 0.101961 1 0 
0.0745098 1 0 0.0745098 1 0 
0.101961 1 0 0.101961 1 0 
0.0745098 1 0 0.0901961 1 0 
0.0901961 1 0 0.0745098 1 0 
0.0901961 1 0 0.0745098 1 0 
0.0745098 1 0 0.0627451 1 0 
0.0627451 1 0 0.0901961 1 0 
0.0901961 1 0 0.0745098 1 0 
0.0745098 1 0 0.0745098 1 0 
0.0901961 1 0 0.101961 1 0 
0.101961 1 0 0.101961 1 0 
0.101961 1 0 0.101961 1 0 
0.0745098 1 0 0.0627451 1 0 
0.0901961 1 0 0.0901961 1 0 
0.0627451 1 0 0.0627451 1 0 
0.0745098 1 0 0.0627451 1 0 
0.0627451 1 0 0.0627451 1 0 
0.0627451 1 0 0.0901961 1 0 
0.0627451 1 0 0.101961 1 0 
0.101961 1 0 0.101961 1 0 
0.101961 1 0 0.101961 1 0 
0.101961 1 0 0.101961 1 0 
0.101961 1 0 0.101961 1 0 
0.117647 1 0 0.117647 1 0 
0.101961 1 0 0.0509804 1 0 
0.0509804 1 0 0.101961 1 0 
0.0745098 1 0 0.0392157 1 0 
0.0392157 1 0 0.0392157 1 0 
0.0392157 1 0 0.0745098 1 0 
0.0392157 1 0 0.0745098 1 0 
0.117647 1 0 0.117647 1 0 
0.117647 1 0 0.0392157 1 0 
0.0392157 1 0 0.0509804 1 0 
0.0901961 1 0 0.0901961 1 0 
0.0509804 1 0 0.137255 1 0 
0.137255 1 0 0.117647 1 0 
0.0745098 1 0 0.117647 1 0 
0.117647 1 0 0.117647 1 0 
0.117647 1 0 0.0509804 1 0 
0.117647 1 0 0.0392157 1 0 
0.0392157 1 0 0.0901961 1 0 
0.0509804 1 0 0.0509804 1 0 
0.0509804 1 0 0.0901961 1 0 
0.0509804 1 0 0.0901961 1 0 
0.0392157 1 0 0.0901961 1 0 
0.0392157 1 0 0.0392157 1 0 
0.0392157 1 0 0.117647 1 0 
0.137255 1 0 0.137255 1 0 
0.137255 1 0 0.137255 1 0 
0.137255 1 0 0.0627451 1 0 
0.0901961 1 0 0.0509804 1 0 
0.0901961 1 0 0.137255 1 0 
0.137255 1 0 0.137255 1 0 
0.137255 1 0 0.137255 1 0 
0.137255 1 0 0.0392157 1 0 
0.0392157 1 0 0.137255 1 0 
0.152941 1 0 0.137255 1 0 
0.0509804 1 0 0.101961 1 0 
0.0313725 1 0 0.0901961 1 0 
0.152941 1 0 0.152941 1 0 
0.192157 1 0 0.0745098 1 0 
0.0901961 1 0 0.211765 1 0 
0.192157 1 0 0.172549 1 0 
0.117647 1 0 0.0156863 1 0 
0.0117647 1 0 0.0313725 1 0 
0.0313725 1 0 0.117647 1 0 
0.0235294 1 0 0.101961 1 0 
0.0156863 1 0 0.0156863 1 0 
0.0156863 1 0 0.0745098 1 0 
0.0745098 1 0 0.0156863 1 0 
0.0117647 1 0 0.117647 1 0 
0.117647 1 0 0.0117647 1 0 
0.117647 1 0 0.00392157 1 0 
0.0117647 1 0 0.00392157 1 0 
0.0117647 1 0 0.117647 1 0 
0.117647 1 0 0.00392157 1 0 
0 1 0 0.0117647 1 0 
0.0156863 1 0 0.00392157 1 0 
0 1 0 0 1 0 
0.0117647 1 0 0.298039 1 0 
0.27451 1 0 0.152941 1 0 
0.25098 1 0 0.0313725 1 0 
0.00392157 1 0 0.0117647 1 0 
0.0156863 1 0 0.0156863 1 0 
0.117647 1 0 0.298039 1 0 
0.27451 1 0 0.298039 1 0 
0.0235294 1 0 0.0313725 1 0 
0.0745098 1 0 0.0313725 1 0 
0.0745098 1 0 0.0235294 1 0 
0.298039 1 0 0.317647 1 0 
0.317647 1 0 0.317647 1 0 
0.317647 1 0 0.317647 1 0 
0.231373 1 0 0.25098 1 0 
0.25098 1 0 0.298039 1 0 
0.317647 1 0 0.231373 1 0 
0.25098 1 0 0.231373 1 0 
0.192157 1 0 0.192157 1 0 
0.211765 1 0 0.0509804 1 0 
0.101961 1 0 0.0745098 1 0 
0.0509804 1 0 0.0392157 1 0 
0.192157 1 0 0.172549 1 0 
0.172549 1 0 0.0392157 1 0 
0.341176 1 0 0.298039 1 0 
0.298039 1 0 0.317647 1 0 
0.27451 1 0 0.231373 1 0 
0.0627451 1 0 0.0627451 1 0 
0.137255 1 0 0.0745098 1 0 
0.0901961 1 0 0.101961 1 0 
0.0745098 1 0 0.101961 1 0 
0.211765 1 0 0.192157 1 0 
0.211765 1 0 0.25098 1 0 
0.101961 1 0 0.152941 1 0 
0.117647 1 0 0.172549 1 0 
0.211765 1 0 0.172549 1 0 
0.172549 1 0 0.172549 1 0 
0.137255 1 0 0.152941 1 0 
0.192157 1 0 0.137255 1 0 
0.192157 1 0 0.25098 1 0 
0.25098 1 0 0.192157 1 0 
0.192157 1 0 0.192157 1 0 
0.231373 1 0 0.231373 1 0 
0.231373 1 0 0.25098 1 0 
0.27451 1 0 0.25098 1 0 
0.25098 1 0 0.211765 1 0 
0.27451 1 0 0.231373 1 0 
0.298039 1 0 0.211765 1 0 
0.25098 1 0 0.27451 1 0 
0.317647 1 0 0.317647 1 0 
0.317647 1 0 0.317647 1 0 
0.317647 1 0 0.341176 1 0 
0.341176 1 0 0.364706 1 0 
0.25098 1 0 0.317647 1 0 
0.27451 1 0 0.341176 1 0 
0.25098 1 0 0.27451 1 0 
0.364706 1 0 0.364706 1 0 
0.415686 1 0 0.364706 1 0 
0.298039 1 0 0.388235 1 0 
0.317647 1 0 0.388235 1 0 
0.560784 1 0 0.439216 1 0 
0.462745 1 0 0.462745 1 0 
0.364706 1 0 0.486275 1 0 
0.486275 1 0 0.364706 1 0 
0.439216 1 0 0.341176 1 0 
0.341176 1 0 0.317647 1 0 
0.341176 1 0 0.364706 1 0 
0.317647 1 0 0.341176 1 0 
0.415686 1 0 0.847059 1 0 
0.827451 1 0 0.827451 1 0 
0.847059 1 0 0.462745 1 0 
0.462745 1 0 0.462745 1 0 
0.486275 1 0 0.298039 1 0 
0.513725 1 0 0.388235 1 0 
0.364706 1 0 0.364706 1 0 
0.537255 1 0 0.415686 1 0 
0.388235 1 0 0.415686 1 0 
0.415686 1 0 0.537255 1 0 
0.486275 1 0 0.584314 1 0 
0.513725 1 0 0.611765 1 0 
0.388235 1 0 0.486275 1 0 
0.537255 1 0 0.486275 1 0 
0.486275 1 0 0.878431 1 0 
0.878431 1 0 0.878431 1 0 
0.878431 1 0 0.513725 1 0 
0.388235 1 0 0.560784 1 0 
0.513725 1 0 0.584314 1 0 
0.560784 1 0 0.584314 1 0 
0.513725 1 0 0.658824 1 0 
0.560784 1 0 0.584314 1 0 
0.560784 1 0 0.584314 1 0 
0.682353 1 0 0.584314 1 0 
0.72549 1 0 0.560784 1 0 
0.537255 1 0 0.74902 1 0 
0.74902 1 0 0.635294 1 0 
0.701961 1 0 0.537255 1 0 
0.0156863 1 0 0 1 0 
0.0392157 1 0 0.0901961 1 0 
0.0117647 1 0 0.0117647 1 0 
0.00392157 1 0 0 1 0 
0.0627451 1 0 0.0745098 1 0 
0.658824 1 0 0.635294 1 0 
0.682353 1 0 0.701961 1 0 
0.701961 1 0 0.682353 1 0 
0.584314 1 0 0.584314 1 0 
0.584314 1 0 0.635294 1 0 
0.611765 1 0 0.584314 1 0 
0.560784 1 0 0.560784 1 0 
0.74902 1 0 0.486275 1 0 
0.682353 1 0 0.439216 1 0 
0.364706 1 0 0.788235 1 0 
0.768627 1 0 0.701961 1 0 
0.847059 1 0 0.807843 1 0 
0 1 0 0 1 0.00392157 
0.0235294 1 0 0.0313725 1 0 
0.0745098 1 0 0.0235294 1 0 
0.00392157 1 0 0.0627451 1 0 
0.152941 1 0 0.0745098 1 0 
0.152941 1 0 0.0901961 1 0 
0 1 0 0.0509804 1 0 
0.0156863 1 0 0.0627451 1 0 
0 1 0 0 1 0 
0.635294 1 0 0.682353 1 0 
0.584314 1 0 0.584314 1 0 
0.0156863 1 0 0.0235294 1 0 
0.0509804 1 0 0.0392157 1 0 
0 1 0 0.00392157 1 0 
0 1 0.0117647 0 1 0 
0 1 0 0 1 0.00392157 
0 1 0.0235294 0 1 0.0313725 
0.658824 1 0 0.298039 1 0 
0.341176 1 0 0.298039 1 0 
0.341176 1 0 0.701961 1 0 
0.388235 1 0 0.658824 1 0 
0.317647 1 0 0.192157 1 0 
0.878431 1 0 0.862745 1 0 
0.862745 1 0 0.364706 1 0 
0.682353 1 0 0.364706 1 0 
0.682353 1 0 0.909804 1 0 
0.909804 1 0 0.878431 1 0 
0.0235294 1 0 0.0627451 1 0 
0.0901961 1 0 0.0392157 1 0 
0.0392157 1 0 0.0235294 1 0 
0.0509804 1 0 0.0313725 1 0 
0.0117647 1 0 0 1 0.0235294 
0 1 0 0.0156863 1 0 
0.0235294 1 0 0.152941 1 0 
0.172549 1 0 0.0901961 1 0 
0.0235294 1 0 0.0901961 1 0 
0 1 0 0.0235294 1 0 
0.388235 1 0 0.364706 1 0 
0.364706 1 0 0.701961 1 0 
0.101961 1 0 0.537255 1 0 
0.0313725 1 0 0.439216 1 0 
0.0235294 1 0 0.0156863 1 0 
0.847059 1 0 0.921569 1 0 
0.878431 1 0 0.862745 1 0 
0.945098 1 0 0.933333 1 0 
0.0117647 1 0 0.0313725 1 0 
0.0117647 1 0 0.0156863 1 0 
0 1 0 0.0117647 1 0 
0 1 0 0.933333 1 0 
0.945098 1 0 0.933333 1 0 
0 1 0 0.298039 1 0 
0.513725 1 0 0.0627451 1 0 
0 1 0.00392157 0 1 0.0313725 
0.894118 1 0 0.0156863 1 0 
0.0156863 1 0 0.909804 1 0 
0.909804 1 0 0.909804 1 0 
0 1 0.0313725 0.298039 1 0 
0.27451 1 0 0 1 0.0117647 
0.27451 1 0 0 1 0.0431373 
0 1 0.0431373 0 1 0.0509804 
0.25098 1 0 0 1 0.0313725 
0 1 0.105882 0 1 0.156863 
0 1 0.00392157 0.364706 1 0 
0 1 0.443137 0.0745098 1 0 
0.192157 1 0 0 1 0.192157 
0 1 0.513725 0 1 0.466667 
0 1 0.541176 0.152941 1 0 
0.117647 1 0 0 1 0.443137 
0.0509804 1 0 0 1 0.415686 
0.894118 1 0 0.909804 1 0 
0.894118 1 0 0 1 0.00392157 
0 1 0.00392157 0.894118 1 0 
0.878431 1 0 0 1 0.192157 
0.192157 1 0 0 1 0.172549 
0.0901961 1 0 0 1 0.611765 
0 1 0 0 1 0 
0 1 0.705882 0 1 0.466667 
0.827451 1 0 0.862745 1 0 
0.807843 1 0 0.415686 1 0 
0 1 0 0.862745 1 0 
0.909804 1 0 0.862745 1 0 
0 1 0.368627 0 1 0.415686 
0 1 0.466667 0 1 0.137255 
0 1 0 0.415686 1 0 
0 1 0.137255 0.137255 1 0 
0 1 0.278431 0 1 0.345098 
0 1 0.513725 0 1 0.682353 
0 1 0.705882 0.0156863 1 0 
0 1 0.564706 0.862745 1 0 
0.862745 1 0 0.862745 1 0 
0.847059 1 0 0.894118 1 0 
0.172549 1 0 0.192157 1 0 
0.827451 1 0 0.847059 1 0 
0 1 0.172549 0 1 0.156863 
0.827451 1 0 0.878431 1 0 
0.847059 1 0 0.807843 1 0 
0.847059 1 0 0.827451 1 0 
0.768627 1 0 0.768627 1 0 
0.768627 1 0 0.74902 1 0 
0.72549 1 0 0.768627 1 0 
0.74902 1 0 0.933333 1 0 
0.878431 1 0 0.894118 1 0 
0.807843 1 0 0.807843 1 0 
0.956863 1 0 0.921569 1 0 
0.894118 1 0 0.827451 1 0 
0.137255 1 0 0.172549 1 0 
0.298039 1 0 0.211765 1 0 
0.211765 1 0 0.317647 1 0 
0.827451 1 0 0.137255 1 0 
0 1 0.298039 0 1 0.0431373 
0 1 0.0117647 0 1 0.156863 
0 1 0.0784314 0.27451 1 0 
0 1 0.392157 0.0235294 1 0 
0.807843 1 0 0.862745 1 0 
0.847059 1 0 0 1 0.211765 
0.768627 1 0 0.768627 1 0 
0.768627 1 0 0.768627 1 0 
0.74902 1 0 0.192157 1 0 
0.211765 1 0 0.117647 1 0 
0.172549 1 0 0.172549 1 0 
0.192157 1 0 0.192157 1 0 
0.192157 1 0 0 1 0.137255 
0.101961 1 0 0.388235 1 0 
0 1 0.00392157 0 1 0.211765 
0 1 0.466667 0 1 0.635294 
0 1 0.541176 0 1 0 
0.788235 1 0 0.768627 1 0 
0.788235 1 0 0.788235 1 0 
0 1 0.466667 0.231373 1 0 
0.364706 1 0 0.341176 1 0 
0.317647 1 0 0.341176 1 0 
0.364706 1 0 0.192157 1 0 
0.211765 1 0 0.25098 1 0 
0.101961 1 0 0.192157 1 0 
0.25098 1 0 0.317647 1 0 
0.0235294 1 0 0.0509804 1 0 
0.0509804 1 0 0.0392157 1 0 
0.298039 1 0 0.231373 1 0 
0.0745098 1 0 0.152941 1 0 
0.0745098 1 0 0.0235294 1 0 
0.0156863 1 0 0 1 0.345098 
0.117647 1 0 0 1 0.415686 
0.0745098 1 0 0.847059 1 0 
0.933333 1 0 0.878431 1 0 
0 1 0.490196 0.0392157 1 0 
0.00392157 1 0 0 1 0.772549 
0 1 0.541176 0.0392157 1 0 
0.137255 1 0 0 1 0.368627 
0 1 0.705882 0 1 0.443137 
0 1 0.415686 0.768627 1 0 
0.0392157 1 0 0.0745098 1 0 
0.0627451 1 0 0.0509804 1 0 
0.137255 1 0 0.0156863 1 0 
0.0313725 1 0 0.878431 1 0 
0.945098 1 0 0.862745 1 0 
0.74902 1 0 0.827451 1 0 
0.827451 1 0 0.807843 1 0 
0 1 0.74902 0.909804 1 0 
0.847059 1 0 0.862745 1 0 
0 1 0.368627 0.0745098 1 0 
0.0901961 1 0 0 1 0.298039 
0 1 0.466667 0 1 0.564706 
0 1 0.466667 0 1 0.368627 
0 1 0.321569 0.172549 1 0 
0.211765 1 0 0 1 0.235294 
0.0627451 1 0 0.788235 1 0 
0.788235 1 0 0.827451 1 0 
0.788235 1 0 0.788235 1 0 
0.807843 1 0 0.862745 1 0 
0.878431 1 0 0.807843 1 0 
0 1 0.564706 0 1 0.392157 
0 1 0.254902 0.25098 1 0 
0 1 0.298039 0.0901961 1 0 
0.878431 1 0 0.921569 1 0 
0.878431 1 0 0 1 0.368627 
0 1 0.588235 0 1 0 
0 1 0.705882 0 1 0.00392157 
0 1 0.278431 0 1 0.466667 
0 1 0.772549 0.768627 1 0 
0 1 0.729412 0 1 0.00392157 
0 1 0.729412 0 1 0 
0 1 0.254902 0.25098 1 0 
0.317647 1 0 0 1 0.156863 
0.0745098 1 0 0 1 0.368627 
0.894118 1 0 0.921569 1 0 
0.847059 1 0 0 1 0.564706 
0 1 0.415686 0.0627451 1 0 
0 1 0.490196 0 1 0.513725 
0 1 0.490196 0.807843 1 0 
0.788235 1 0 0.72549 1 0 
0.74902 1 0 0.807843 1 0 
0.101961 1 0 0 1 0.0901961 
0 1 0.137255 0 1 0.490196 
0 1 0.121569 0 1 0.0431373 
0.388235 1 0 0 1 0.278431 
0.635294 1 0 0.635294 1 0 
0.635294 1 0 0.635294 1 0 
0.101961 1 0 0.0509804 1 0 
0.0392157 1 0 0.117647 1 0 
0.341176 1 0 0.317647 1 0 
0.317647 1 0 0.25098 1 0 
0.807843 1 0 0.847059 1 0 
0.788235 1 0 0.878431 1 0 
0.74902 1 0 0.768627 1 0 
0.807843 1 0 0.74902 1 0 
0.909804 1 0 0.847059 1 0 
0.933333 1 0 0.972549 1 0 
0.921569 1 0 0.807843 1 0 
0.701961 1 0 0.933333 1 0 
0 1 0 0 1 0.00392157 
0.909804 1 0 0.945098 1 0 
0.00392157 1 0 0.0901961 1 0 
0.894118 1 0 0.909804 1 0 
0 1 0.513725 0 1 0.345098 
0 1 0.278431 0 1 0.368627 
0.172549 1 0 0 1 0.635294 
0.0745098 1 0 0 1 0.564706 
0 1 0.466667 0.211765 1 0 
0.172549 1 0 0.192157 1 0 
0.211765 1 0 0.101961 1 0 
0.0901961 1 0 0.0392157 1 0 
0.0392157 1 0 0.192157 1 0 
0.211765 1 0 0.231373 1 0 
0.211765 1 0 0.192157 1 0 
0.211765 1 0 0.27451 1 0 
0.231373 1 0 0.231373 1 0 
0.211765 1 0 0 1 0.00392157 
0.00392157 1 0 0.0235294 1 0 
0 1 0 0 1 0.00392157 
0 1 0 0 1 0 
0 1 0 0 1 0.0156863 
0 1 0 0 1 0 
0 1 0.0431373 0 1 0 
0.0313725 1 0 0 1 0 
0.00392157 1 0 0 1 0 
0 1 0 0 1 0 
0 1 0 0.0627451 1 0 
0.341176 1 0 0.298039 1 0 
0 1 0.74902 0 1 0.882353 
0 1 0.74902 0 1 0.937255 
0 1 0.792157 0.921569 1 0 
0.847059 1 0 0.862745 1 0 
0.909804 1 0 0.956863 1 0 
0 1 0.368627 0.0745098 1 0 
0.231373 1 0 0 1 0.172549 
0 1 0.392157 0 1 0.443137 
0.25098 1 0 0.211765 1 0 
0.192157 1 0 0.152941 1 0 
0.172549 1 0 0.0901961 1 0 
0.0745098 1 0 0.364706 1 0 
0.364706 1 0 0.25098 1 0 
0.172549 1 0 0 1 0 
0.00392157 1 0 0.101961 1 0 
0 1 0.298039 0 1 0.254902 
0 1 0.298039 0 1 0.415686 
0.0313725 1 0 0.172549 1 0 
0 1 0.211765 0 1 0.415686 
0 1 0.564706 0.0392157 1 0 
0 1 0.466667 0 1 0.345098 
0 1 0.368627 0.921569 1 0 
0.964706 1 0 0.921569 1 0 
0.827451 1 0 0.847059 1 0 
0.847059 1 0 0.807843 1 0 
0.101961 1 0 0 1 0.211765 
0.862745 1 0 0.0313725 1 0 
0.0313725 1 0 0.0392157 1 0 
0.0392157 1 0 0.0313725 1 0 
0.0235294 1 0 0.0313725 1 0 
0.0313725 1 0 0.0392157 1 0 
0.0509804 1 0 0.388235 1 0 
0.317647 1 0 0.231373 1 0 
0.415686 1 0 0.298039 1 0 
0.25098 1 0 0 1 0.235294 
0.192157 1 0 0.172549 1 0 
0 1 0.192157 0 1 0.278431 
0 1 0.192157 0.878431 1 0 
0.945098 1 0 0.909804 1 0 
0 1 0.321569 0.0313725 1 0 
0.847059 1 0 0.0235294 1 0 
0.0313725 1 0 0.0156863 1 0 
0.0392157 1 0 0.0235294 1 0 
0.0235294 1 0 0.0117647 1 0 
0.27451 1 0 0.0392157 1 0 
0 1 0.466667 0 1 0.443137 
0 1 0.345098 0 1 0.368627 
0.0627451 1 0 0.0509804 1 0 
0 1 0.443137 0 1 0.466667 
0.0156863 1 0 0.00392157 1 0 
0 1 0.635294 0 1 0.235294 
0.192157 1 0 0.415686 1 0 
0.513725 1 0 0 1 0.0156863 
0.462745 1 0 0.341176 1 0 
0 1 0.0313725 0 1 0.0627451 
0.341176 1 0 0.513725 1 0 
0.415686 1 0 0 1 0.121569 
0 1 0.0627451 0 1 0.345098 
0.0627451 1 0 0.211765 1 0 
0 1 0.211765 0 1 0.443137 
0.768627 1 0 0.788235 1 0 
0.788235 1 0 0 1 0.0431373 
0.439216 1 0 0 1 0.0509804 
0 1 0.211765 0.768627 1 0 
0.788235 1 0 0.74902 1 0 
0.74902 1 0 0 1 0 
0 1 0 0 1 0 
0 1 0 0 1 0 
0 1 0 0.0392157 1 0 
0 1 0.345098 0 1 0.368627 
0 1 0.490196 0 1 0.513725 
0 1 0.235294 0.0901961 1 0 
0.862745 1 0 0.878431 1 0 
0.827451 1 0 0 1 0.658824 
0 1 0.490196 0.894118 1 0 
0.933333 1 0 0.415686 1 0 
0.878431 1 0 0.560784 1 0 
0.788235 1 0 0.878431 1 0 
0.933333 1 0 0.0745098 1 0 
0.878431 1 0 0 1 0.443137 
0 1 0.0117647 0.439216 1 0 
0 1 0.235294 0.117647 1 0 
0.921569 1 0 0.964706 1 0 
0.909804 1 0 0.945098 1 0 
0.862745 1 0 0.933333 1 0 
0.980392 1 0 0.0901961 1 0 
0.172549 1 0 0.933333 1 0 
0.788235 1 0 0.788235 1 0 
0.768627 1 0 0.768627 1 0 
0.862745 1 0 0.921569 1 0 
0.847059 1 0 0.862745 1 0 
0.921569 1 0 0.894118 1 0 
0.788235 1 0 0.788235 1 0 
0.768627 1 0 0.788235 1 0 
0.827451 1 0 0.74902 1 0 
0.74902 1 0 0.768627 1 0 
0 1 0.345098 0 1 0.588235 
0 1 0.513725 0 1 0.392157 
0 1 0.192157 0.964706 1 0 
0.909804 1 0 0.827451 1 0 
0 1 0.490196 0.945098 1 0 
0.862745 1 0 0.788235 1 0 
0 1 0 0 1 0 
0.788235 1 0 0.807843 1 0 
0.192157 1 0 0.807843 1 0 
0.909804 1 0 0.972549 1 0 
0.584314 1 0 0 1 0.00392157 
0 1 0.0156863 0.74902 1 0 
0.768627 1 0 0 1 0.513725 
0 1 0.658824 0 1 0.235294 
0 1 0.0901961 0 1 0.121569 
0.192157 1 0 0.0509804 1 0 
0 1 0.235294 0 1 0.172549 
0.137255 1 0 0.788235 1 0 
0.847059 1 0 0.807843 1 0 
0.847059 1 0 0.768627 1 0 
0 1 0.443137 0 1 0.705882 
0.584314 1 0 0.611765 1 0 
0.560784 1 0 0.537255 1 0 
0.72549 1 0 0.701961 1 0 
0.74902 1 0 0.25098 1 0 
0.0901961 1 0 0.701961 1 0 
0 1 0.105882 0 1 0.0117647 
0 1 0.235294 0 1 0.172549 
0 1 0.443137 0 1 0.211765 
0.74902 1 0 0.827451 1 0 